Title: * spicenetlist
Date: Thu Jul 09 17:17:42  2020
Plotname: Transient Analysis
Flags: real
No. Variables: 7
No. Points: 954
Variables:
	0	time	time
	1	v(vin)	voltage
	2	v(coilb)	voltage
	3	v(coila)	voltage
	4	v(vout)	voltage
	5	v(te)	voltage
	6	i(i(v_v1))	current
Values:
 0	1.006511989425075e-002
	5.000000000000000e+000
	6.892711916543695e-002
	6.892721278925251e-002
	9.999978158079903e-001
	3.628516792689844e-003
	-1.017729858803788e-002

 1	1.044511989425075e-002
	5.000000000000000e+000
	6.892667215343591e-002
	6.892649097796925e-002
	9.999977333457809e-001
	3.628465644245220e-003
	-1.017729980889499e-002

 2	1.082511989425075e-002
	5.000000000000000e+000
	6.892705749084797e-002
	6.892740790345747e-002
	9.999976508835783e-001
	3.628563710900272e-003
	-1.017729845523381e-002

 3	1.120511989425075e-002
	5.000000000000000e+000
	6.892689731935535e-002
	6.892621915042638e-002
	9.999975684213827e-001
	3.628373081481165e-003
	-1.017729985532934e-002

 4	1.158511989425075e-002
	5.000000000000000e+000
	6.892658493243284e-002
	6.892789654385430e-002
	9.999974859591937e-001
	3.628740974173214e-003
	-1.017729843923615e-002

 5	1.196511989425075e-002
	5.000000000000000e+000
	6.892782454643476e-002
	6.892528610903430e-002
	9.999974034970117e-001
	3.628028256307386e-003
	-1.017729986110942e-002

 6	1.234511989425075e-002
	5.000000000000000e+000
	6.892478639421697e-002
	6.892969585073409e-002
	9.999973210348357e-001
	3.629406126333274e-003
	-1.017729843848465e-002

 7	1.272511989425075e-002
	5.000000000000000e+000
	6.893130391330626e-002
	6.892180236557696e-002
	9.999972385726683e-001
	3.626739193757157e-003
	-1.017729986547663e-002

 8	1.310511989425075e-002
	5.000000000000000e+000
	6.891804567357684e-002
	6.893642211837080e-002
	9.999971561105042e-001
	3.631897479096855e-003
	-1.017729845295107e-002

 9	1.348511989425075e-002
	5.000000000000000e+000
	6.894430851582460e-002
	6.890874361158328e-002
	9.999970736483539e-001
	3.621915793155307e-003
	-1.017729991963855e-002

 10	1.386511989425075e-002
	5.000000000000000e+000
	6.889274028102145e-002
	6.896152419923167e-002
	9.999969911861975e-001
	3.641224351624035e-003
	-1.017729865633869e-002

 11	1.424511989425075e-002
	5.000000000000000e+000
	6.899270541587468e-002
	6.885958663706761e-002
	9.999969087240727e-001
	3.603863675465482e-003
	-1.017730067996125e-002

 12	1.462511989425075e-002
	5.000000000000000e+000
	6.879698912842881e-002
	6.905442919604701e-002
	9.999968262619063e-001
	3.676132936924572e-003
	-1.017730150345980e-002

 13	1.500511989425075e-002
	5.000000000000000e+000
	6.916987453949570e-002
	6.867176864365233e-002
	9.999967437998396e-001
	3.536325222585524e-003
	-1.017731133240295e-002

 14	1.538511989425075e-002
	5.000000000000000e+000
	6.842458733328156e-002
	6.938699446984024e-002
	9.999966613376002e-001
	3.806580108840600e-003
	-1.017734135337021e-002

 15	1.576511989425075e-002
	5.000000000000000e+000
	6.986455750742868e-002
	6.800179479608651e-002
	9.999965788757151e-001
	3.283807837460533e-003
	-1.017728649513683e-002

 16	1.614511989425076e-002
	5.000000000000000e+000
	6.719131709955852e-002
	7.080858986937205e-002
	9.999964964131608e-001
	4.297839758712478e-003
	-1.017715300957601e-002

 17	1.652511989425076e-002
	5.000000000000000e+000
	7.272481123998643e-002
	6.565680913996987e-002
	9.999964139519391e-001
	2.320628657576056e-003
	-1.017677114208902e-002

 18	1.684573824726534e-002
	5.000000000000000e+000
	6.197697622234474e-002
	7.851829461505745e-002
	9.999963443739540e-001
	6.689348681299630e-003
	-1.017465564126589e-002

 19	1.715600487794920e-002
	5.000000000000000e+000
	7.396373346687020e-001
	2.367858910495074e-002
	9.999962771896290e-001
	-1.291289157796124e-001
	-9.551185899994335e-003

 20	1.741849556091035e-002
	5.000000000000000e+000
	1.926119571999736e-002
	1.148044278891769e+000
	9.999962204711546e-001
	7.786922056584094e-001
	-9.188729959489082e-003

 21	1.759026777127080e-002
	5.000000000000000e+000
	2.162043616123759e-002
	2.311979483152959e+000
	1.012241020173831e+000
	1.651303451321793e+000
	-8.020322435113657e-003

 22	1.773208881197453e-002
	5.000000000000000e+000
	4.481668120473092e-002
	2.755225139334060e+000
	1.279773551073443e+000
	1.995156636501689e+000
	-7.552033835732932e-003

 23	1.779774137438961e-002
	5.000000000000000e+000
	3.079579345134768e-002
	2.889844621068367e+000
	1.460013500575199e+000
	2.159531164737298e+000
	-7.430535346394092e-003

 24	1.784204194004593e-002
	5.000000000000000e+000
	3.408369356913370e-002
	2.989950833028023e+000
	1.549437996866892e+000
	2.252652637058746e+000
	-7.326503149793244e-003

 25	1.788039278359610e-002
	5.000000000000000e+000
	3.414038206969694e-002
	3.068784856450131e+000
	1.630737994245153e+000
	2.332691224529788e+000
	-7.247040810098186e-003

 26	1.792144486749640e-002
	5.000000000000000e+000
	3.461981823966528e-002
	3.149868459380615e+000
	1.713519936410525e+000
	2.414384281795945e+000
	-7.164872977303520e-003

 27	1.798383615685480e-002
	5.000000000000000e+000
	3.522866694308269e-002
	3.266875414162481e+000
	1.832789810837224e+000
	2.532218261233751e+000
	-7.046331816907033e-003

 28	1.810861873557161e-002
	5.000000000000000e+000
	3.665524737206477e-002
	3.478755052097217e+000
	2.049551697571119e+000
	2.745825734219911e+000
	-6.831189175772692e-003

 29	1.835818389300522e-002
	5.000000000000000e+000
	3.948070540378140e-002
	3.828704327929103e+000
	2.408646308141524e+000
	3.098934946217785e+000
	-6.474759312514708e-003

 30	1.873818389300522e-002
	5.000000000000000e+000
	4.429156052115634e-002
	4.213392412038545e+000
	2.807395109807668e+000
	3.488247936322681e+000
	-6.079777551528261e-003

 31	1.911818389300522e-002
	5.000000000000000e+000
	4.882995031328082e-002
	4.469634821523123e+000
	3.076898474887854e+000
	3.748851623300674e+000
	-5.813629394041038e-003

 32	1.949818389300522e-002
	5.000000000000000e+000
	5.351355561902495e-002
	4.639756118022207e+000
	3.260681451484643e+000
	3.923461902916042e+000
	-5.633588188906069e-003

 33	1.987818389300522e-002
	5.000000000000000e+000
	5.716720477052611e-002
	4.752841514510905e+000
	3.386866793462219e+000
	4.041270460513405e+000
	-5.511770497110530e-003

 34	1.992568389300522e-002
	5.000000000000000e+000
	5.798223882431432e-002
	4.763177348170236e+000
	3.399129278359172e+000
	4.052161991700127e+000
	-5.499987687748002e-003

 35	2.002068389300522e-002
	5.000000000000000e+000
	5.991523645843275e-002
	4.781612645366814e+000
	3.422082646958175e+000
	4.071889904427501e+000
	-5.478350195013420e-003

 36	2.004443389300522e-002
	5.000000000000000e+000
	6.083391349967054e-002
	4.785075025145230e+000
	3.427149282868956e+000
	4.075695124527297e+000
	-5.473641787149292e-003

 37	2.009193389300522e-002
	5.000000000000000e+000
	6.502310966856634e-002
	4.789609862094923e+000
	3.436409181277172e+000
	4.080497760600039e+000
	-5.464196119290830e-003

 38	2.010380889300522e-002
	5.000000000000000e+000
	6.785753217968706e-002
	4.789425190162610e+000
	3.438298233772588e+000
	4.079932730825831e+000
	-5.461312284138348e-003

 39	2.010677764300522e-002
	5.000000000000000e+000
	6.909644037951310e-002
	4.789240356570044e+000
	3.438751996533767e+000
	4.079447870101369e+000
	-5.460183238613416e-003

 40	2.010751983050522e-002
	5.000000000000000e+000
	6.950258539161429e-002
	4.789175190144646e+000
	3.438864050039921e+000
	4.079268130191259e+000
	-5.459820493406117e-003

 41	2.010900420550522e-002
	5.000000000000000e+000
	7.049605854524711e-002
	4.789007635922631e+000
	3.439084914433090e+000
	4.078797991306381e+000
	-5.458945342802821e-003

 42	2.010937529925522e-002
	5.000000000000000e+000
	7.081829417841254e-002
	4.788950847591310e+000
	3.439138822542755e+000
	4.078635542764905e+000
	-5.458665254547145e-003

 43	2.011011748675522e-002
	5.000000000000000e+000
	7.156283908592864e-002
	4.788818445904112e+000
	3.439245523784861e+000
	4.078250349836103e+000
	-5.458020688052394e-003

 44	2.011160186175522e-002
	5.000000000000000e+000
	7.492678877469156e-002
	4.788236305437516e+000
	3.439447790281456e+000
	4.076378513253215e+000
	-5.455114922223177e-003

 45	2.011164824847397e-002
	5.000000000000000e+000
	7.510385663392352e-002
	4.788205697904274e+000
	3.439453805397308e+000
	4.076277521864482e+000
	-5.454962343261624e-003

 46	2.011174102191147e-002
	5.000000000000000e+000
	7.548799430373655e-002
	4.788139465518526e+000
	3.439465776821536e+000
	4.076058213019944e+000
	-5.454631266564203e-003

 47	2.011192656878647e-002
	5.000000000000000e+000
	7.649029787893552e-002
	4.787968165774024e+000
	3.439489302844855e+000
	4.075483382990898e+000
	-5.453766626176293e-003

 48	2.011197295550522e-002
	5.000000000000000e+000
	7.682122280806668e-002
	4.787911793975224e+000
	3.439495061349851e+000
	4.075292608345300e+000
	-5.453481170134607e-003

 49	2.011206572894272e-002
	5.000000000000000e+000
	7.758164640705309e-002
	4.787782044842471e+000
	3.439506469130394e+000
	4.074853284630200e+000
	-5.452825650252586e-003

 50	2.011225127581772e-002
	5.000000000000000e+000
	8.022473146073562e-002
	4.787325717496139e+000
	3.439528341306452e+000
	4.073314334338908e+000
	-5.450554751497458e-003

 51	2.011229766253648e-002
	5.000000000000000e+000
	8.142490999343462e-002
	4.787112973239051e+000
	3.439533470791055e+000
	4.072610511306955e+000
	-5.449529889420302e-003

 52	2.011239043597398e-002
	5.000000000000000e+000
	8.546629346649885e-002
	4.786347377455861e+000
	3.439543231233468e+000
	4.070211794420219e+000
	-5.446130934623600e-003

 53	2.011247745333540e-002
	5.000000000000000e+000
	2.205322739549893e-001
	6.461241808271682e-002
	3.439547574833624e+000
	-1.637139168207723e-002
	-1.020267645580930e-002

 54	2.011253928464609e-002
	5.000000000000000e+000
	2.369894037887273e-001
	3.126523125566977e-002
	3.439547574787488e+000
	-2.558712286697637e-002
	-1.022021351175464e-002

 55	2.011259658411079e-002
	5.000000000000000e+000
	2.281342727379299e-001
	3.369970437251994e-002
	3.439547574744735e+000
	-2.349809637841446e-002
	-1.022689211184195e-002

 56	2.011266785817193e-002
	5.000000000000000e+000
	2.443777597181850e-001
	2.145424537133621e-002
	3.439547574691557e+000
	-2.876970686428667e-002
	-1.022277074658833e-002

 57	2.011275795011865e-002
	5.000000000000000e+000
	2.338516032240958e-001
	2.617499352591904e-002
	3.439547574624339e+000
	-2.594840242252081e-002
	-1.022882272044942e-002

 58	2.011286215895498e-002
	5.000000000000000e+000
	2.502628195827897e-001
	1.755726079245195e-002
	3.439547574546587e+000
	-3.057979836182187e-002
	-1.022077678263865e-002

 59	2.011301348307165e-002
	5.000000000000000e+000
	2.389986363209112e-001
	2.288742435985130e-002
	3.439547574433683e+000
	-2.750914830967601e-002
	-1.022698342343721e-002

 60	2.011323538391711e-002
	5.000000000000000e+000
	2.563125943008024e-001
	1.575735040540636e-002
	3.439547574268123e+000
	-3.203232879878103e-002
	-1.021649948239894e-002

 61	2.011360553414647e-002
	5.000000000000000e+000
	2.461718914925647e-001
	2.155214921891224e-002
	3.439547573991957e+000
	-2.908358001954054e-002
	-1.022113522933155e-002

 62	2.011421707913731e-002
	5.000000000000000e+000
	2.666931183928377e-001
	1.534845094819083e-002
	3.439547573535692e+000
	-3.402884906450721e-002
	-1.020649977478060e-002

 63	2.011501081420142e-002
	5.000000000000000e+000
	2.602383606165385e-001
	2.147013070088604e-002
	3.439547572943507e+000
	-3.170165352991169e-002
	-1.020712065525539e-002

 64	2.011659828432966e-002
	5.000000000000000e+000
	2.903027515069375e-001
	1.538043270812589e-002
	3.439547571759162e+000
	-3.839181043533712e-002
	-1.018280709265539e-002

 65	2.011977322458615e-002
	5.000000000000000e+000
	3.073068787732045e-001
	2.151717195742748e-002
	3.439547569390575e+000
	-4.040281159149984e-002
	-1.015990181882458e-002

 66	2.012612310509911e-002
	5.000000000000000e+000
	3.836037540379595e-001
	1.544210571924096e-002
	3.439547564653795e+000
	-5.564660211398752e-002
	-1.008924084736312e-002

 67	2.013882286612503e-002
	5.000000000000000e+000
	4.909286467293059e-001
	2.173479130776276e-002
	3.439547555181787e+000
	-7.434827034412574e-002
	-9.975647159895618e-003

 68	2.016422238817687e-002
	5.000000000000000e+000
	7.386966633958455e-001
	1.569398522795614e-002
	3.439547536243806e+000
	-1.214442248338779e-001
	-9.733075911435553e-003

 69	2.021502143228055e-002
	5.000000000000000e+000
	1.156423179270955e+000
	2.270100096445541e-002
	3.439547498389293e+000
	-2.081873909969922e-001
	-9.307500277829259e-003

 70	2.022772119330647e-002
	5.000000000000000e+000
	1.262887941108204e+000
	1.960331007736733e-002
	3.439547488928733e+000
	-2.655043963334517e-001
	-9.203712029059973e-003

 71	2.025312071535831e-002
	5.000000000000000e+000
	1.456679966166239e+000
	1.989743796393746e-002
	3.439547470011799e+000
	-2.848127759517634e-001
	-9.009058631001644e-003

 72	2.025947059587127e-002
	5.000000000000000e+000
	1.503211664964396e+000
	1.997298326859125e-002
	3.439547465284157e+000
	-2.878362972751040e-001
	-8.962308888584552e-003

 73	2.027217035689720e-002
	5.000000000000000e+000
	1.595045651264425e+000
	2.012753166278062e-002
	3.439547455829792e+000
	-2.996858037514703e-001
	-8.870034933896922e-003

 74	2.029756987894904e-002
	5.000000000000000e+000
	1.771540569395581e+000
	2.044774401102872e-002
	3.439547436927187e+000
	-3.084397510700920e-001
	-8.692646430708915e-003

 75	2.030391975946200e-002
	5.000000000000000e+000
	1.813919405131470e+000
	2.052953510228660e-002
	3.439547432202852e+000
	-3.205094475103352e-001
	-8.650041846567067e-003

 76	2.031661952048792e-002
	5.000000000000000e+000
	1.897557521245666e+000
	2.069697726613723e-002
	3.439547422755727e+000
	-3.051196388350644e-001
	-8.565947971383764e-003

 77	2.034201904253976e-002
	5.000000000000000e+000
	2.058302129313412e+000
	2.104298463077440e-002
	3.439547403868234e+000
	-3.174158738401910e-001
	-8.404278418355175e-003

 78	2.039281808664344e-002
	5.000000000000000e+000
	2.355324927238540e+000
	2.177972043512006e-002
	3.439547366116222e+000
	-3.209219042189755e-001
	-8.105352399978092e-003

 79	2.049441617485081e-002
	5.000000000000000e+000
	2.863339928794827e+000
	2.343360552722014e-002
	3.439547290696082e+000
	-3.307057213174847e-001
	-7.593320427800020e-003

 80	2.069761235126555e-002
	5.000000000000000e+000
	3.611133420977435e+000
	2.746696145962665e-002
	3.439547140117712e+000
	-3.401847381991751e-001
	-6.836674942367372e-003

 81	2.107761235126555e-002
	5.000000000000000e+000
	4.397622165687086e+000
	3.738993391196128e-002
	3.439560471555653e+000
	-4.604047456704619e-001
	-6.031059972912197e-003

 82	2.145761235126555e-002
	5.000000000000000e+000
	4.729272145016647e+000
	4.914099600662033e-002
	3.449460735379182e+000
	-6.153370160264224e-001
	-5.678399454081867e-003

 83	2.181296120408046e-002
	5.000000000000000e+000
	4.842308107929523e+000
	6.204053199626722e-002
	3.490885424670405e+000
	-6.446909546955221e-001
	-5.543867182066082e-003

 84	2.215742770016166e-002
	5.000000000000000e+000
	4.884210444798106e+000
	6.411319731203907e-002
	3.545074975194947e+000
	-6.375111740430747e-001
	-5.492052251488086e-003

 85	2.244150380021676e-002
	5.000000000000000e+000
	4.909214196819546e+000
	6.553959554163538e-002
	3.579193269578023e+000
	-6.322407052738487e-001
	-5.459321529606030e-003

 86	2.275526610796293e-002
	5.000000000000000e+000
	4.929492100222750e+000
	6.679309563746078e-002
	3.609191781774365e+000
	-6.267536750574392e-001
	-5.431001324773734e-003

 87	2.313526610796294e-002
	5.000000000000000e+000
	4.946821125789604e+000
	6.785889281232548e-002
	3.637646044882793e+000
	-6.206581801820174e-001
	-5.404618777310639e-003

 88	2.351526610796294e-002
	5.000000000000000e+000
	4.958684650505807e+000
	6.862429852544059e-002
	3.659832830076315e+000
	-6.151138708182322e-001
	-5.384246113777817e-003

 89	2.389526610796294e-002
	5.000000000000000e+000
	4.966933617293784e+000
	6.909987498070876e-002
	3.677553096042244e+000
	-6.101404406604132e-001
	-5.368014979785602e-003

 90	2.427526610796294e-002
	5.000000000000000e+000
	4.972763422757129e+000
	6.945156624634678e-002
	3.692029255437762e+000
	-6.056414589982245e-001
	-5.354551795483475e-003

 91	2.465526610796294e-002
	5.000000000000000e+000
	4.976968395842242e+000
	6.964124476698036e-002
	3.704097055865523e+000
	-6.016152240775406e-001
	-5.343095310193829e-003

 92	2.503526610796295e-002
	5.000000000000000e+000
	4.980058554196390e+000
	6.980084205976433e-002
	3.714341367071169e+000
	-5.979583931708289e-001
	-5.332992750717295e-003

 93	2.541526610796295e-002
	5.000000000000000e+000
	4.982382042086177e+000
	6.986133841725056e-002
	3.723176123621530e+000
	-5.946726000269426e-001
	-5.323961300923805e-003

 94	2.579526610796295e-002
	5.000000000000000e+000
	4.984159910608454e+000
	6.993486083282759e-002
	3.730901912918823e+000
	-5.916619261599779e-001
	-5.315657964713410e-003

 95	2.617526610796295e-002
	5.000000000000000e+000
	4.985552222837476e+000
	6.993739615573291e-002
	3.737739241020711e+000
	-5.889381795143071e-001
	-5.308003844417617e-003

 96	2.655526610796295e-002
	5.000000000000000e+000
	4.986657516987028e+000
	6.997197086403816e-002
	3.743854151420827e+000
	-5.864161254129600e-001
	-5.300788203320969e-003

 97	2.693526610796295e-002
	5.000000000000000e+000
	4.987555099856640e+000
	6.994799943528593e-002
	3.749372595293281e+000
	-5.841176514110993e-001
	-5.294020023882018e-003

 98	2.731526610796296e-002
	5.000000000000000e+000
	4.988289973907831e+000
	6.996451809541855e-002
	3.754392636283900e+000
	-5.819667050230029e-001
	-5.287546555395874e-003

 99	2.769526610796296e-002
	5.000000000000000e+000
	4.988905379319222e+000
	6.992817077545807e-002
	3.758990854283973e+000
	-5.799936485583006e-001
	-5.281416025694449e-003

 100	2.807526610796296e-002
	5.000000000000000e+000
	4.989421811988430e+000
	6.993616446532229e-002
	3.763228640275155e+000
	-5.781290237979083e-001
	-5.275502391450802e-003

 101	2.845526610796296e-002
	5.000000000000000e+000
	4.989865361305475e+000
	6.989410754014623e-002
	3.767155186962721e+000
	-5.764087751181297e-001
	-5.269872402903588e-003

 102	2.883526610796296e-002
	5.000000000000000e+000
	4.990208168770278e+000
	6.991226224390693e-002
	3.770809102116316e+000
	-5.747442745706284e-001
	-5.264435224157323e-003

 103	2.921526610796297e-002
	5.000000000000000e+000
	4.976805093132070e+000
	7.602593576245345e-002
	3.773667087990750e+000
	-5.635572537322359e-001
	-5.266610531549329e-003

 104	2.959526610796297e-002
	5.000000000000000e+000
	2.012639714423656e-002
	1.574043168177907e+000
	3.774762533516867e+000
	1.192918696369287e+000
	-8.896713249573161e-003

 105	2.979956861244011e-002
	5.000000000000000e+000
	2.309514703259515e-002
	2.781176802706667e+000
	3.774762366767330e+000
	2.380051226285182e+000
	-7.681836258569310e-003

 106	2.999934589660139e-002
	5.000000000000000e+000
	2.708604170044937e-002
	3.547023045637939e+000
	3.774762204118946e+000
	3.135110507940656e+000
	-6.907183062561632e-003

 107	3.023921321584930e-002
	5.000000000000000e+000
	3.262465522488244e-002
	4.127629237947303e+000
	3.774762009166953e+000
	3.706141407404610e+000
	-6.315152598955437e-003

 108	3.061921321584930e-002
	5.000000000000000e+000
	4.373398020478375e-002
	4.619995688572730e+000
	3.774762515490820e+000
	4.168785280745543e+000
	-5.802257484892419e-003

 109	3.099921321584931e-002
	5.000000000000000e+000
	5.317977360705271e-002
	4.832626428446728e+000
	3.774844037074550e+000
	4.277093723154379e+000
	-5.570903562401275e-003

 110	3.137921321584931e-002
	5.000000000000000e+000
	6.215799404322993e-002
	4.924114330069487e+000
	3.775387569913792e+000
	4.318657074968424e+000
	-5.461368107041999e-003

 111	3.175921321584931e-002
	5.000000000000000e+000
	6.519190820316215e-002
	4.963341313461033e+000
	3.776817328683294e+000
	4.337479087230098e+000
	-5.410468875508547e-003

 112	3.213921321584930e-002
	5.000000000000000e+000
	6.966702632211758e-002
	4.979652562593353e+000
	3.778974357932304e+000
	4.344474445600808e+000
	-5.381236965366568e-003

 113	3.251921321584930e-002
	5.000000000000000e+000
	6.855792538225862e-002
	4.986686378795397e+000
	3.781504811689616e+000
	4.349810951839060e+000
	-5.367300249469083e-003

 114	3.289921321584930e-002
	5.000000000000000e+000
	7.126138226615174e-002
	4.989478883035834e+000
	3.784116145352988e+000
	4.351163156711737e+000
	-5.353896476149232e-003

 115	3.327921321584930e-002
	5.000000000000000e+000
	6.913075500607818e-002
	4.990932073306153e+000
	3.786685244229395e+000
	4.354236447798280e+000
	-5.347063614095573e-003

 116	3.365921321584930e-002
	5.000000000000000e+000
	7.146983300099359e-002
	4.991415333700902e+000
	3.789167666042501e+000
	4.354552496015443e+000
	-5.336799483080879e-003

 117	3.403921321584930e-002
	5.000000000000000e+000
	6.916830563045122e-002
	4.991907926454570e+000
	3.791546442330444e+000
	4.357139241244857e+000
	-5.331544600703464e-003

 118	3.441921321584929e-002
	5.000000000000000e+000
	7.143701433462280e-002
	4.991981282928135e+000
	3.793827092695680e+000
	4.357176269930515e+000
	-5.322190903506116e-003

 119	3.479921321584929e-002
	5.000000000000000e+000
	6.911761081015390e-002
	4.992291346090571e+000
	3.796009757920996e+000
	4.359588402375321e+000
	-5.317552203465361e-003

 120	3.517921321584929e-002
	5.000000000000000e+000
	7.136612466497463e-002
	4.992277970937634e+000
	3.798105898019320e+000
	4.359501171779198e+000
	-5.308709104592623e-003

 121	3.555921321584929e-002
	5.000000000000000e+000
	6.905510612396257e-002
	4.992540880168031e+000
	3.800117085073047e+000
	4.361798146922524e+000
	-5.304499945932351e-003

 122	3.593921321584929e-002
	5.000000000000000e+000
	7.129169723000942e-002
	4.992498968316796e+000
	3.802053685840623e+000
	4.361623762367359e+000
	-5.296077290379047e-003

 123	3.631921321584929e-002
	5.000000000000000e+000
	6.899368305397582e-002
	4.992740666631657e+000
	3.803916698967552e+000
	4.363820615571205e+000
	-5.292244230414186e-003

 124	3.669921321584928e-002
	5.000000000000000e+000
	7.121946113869049e-002
	4.992682952251321e+000
	3.805715211425505e+000
	4.363584069305670e+000
	-5.284206081391261e-003

 125	3.707921321584928e-002
	5.000000000000000e+000
	6.894088996301044e-002
	4.992910814367802e+000
	3.807450048539102e+000
	4.365698306430380e+000
	-5.280713672633316e-003

 126	3.745921321584928e-002
	5.000000000000000e+000
	7.115061758634760e-002
	4.992841639760474e+000
	3.809128363596949e+000
	4.365398162882266e+000
	-5.273040353236991e-003

 127	3.783921321584928e-002
	5.000000000000000e+000
	6.888013673106556e-002
	4.993058412861782e+000
	3.810751026001917e+000
	4.367453102551127e+000
	-5.269877463288320e-003

 128	3.821921321584928e-002
	5.000000000000000e+000
	7.108630982937327e-002
	4.992976745240020e+000
	3.812324223639332e+000
	4.367099479324281e+000
	-5.262537505883060e-003

 129	3.859921321584928e-002
	5.000000000000000e+000
	6.921260666867166e-002
	4.992153397722234e+000
	3.813825756307380e+000
	4.368372667640111e+000
	-5.260313914119583e-003

 130	3.864671321584928e-002
	5.000000000000000e+000
	7.089046857810466e-002
	4.991422219153571e+000
	3.814002567827335e+000
	4.367257350937250e+000
	-5.258699453300251e-003

 131	3.874171321584927e-002
	5.000000000000000e+000
	7.596405588281936e-002
	4.987027790798516e+000
	3.814322990859270e+000
	4.362683865295457e+000
	-5.256640155243034e-003

 132	3.874337581155640e-002
	5.000000000000000e+000
	7.621409313306540e-002
	4.986882795064414e+000
	3.814327975546818e+000
	4.362491280507650e+000
	-5.256505792647986e-003

 133	3.874670100297065e-002
	5.000000000000000e+000
	7.682206659723546e-002
	4.986573571184953e+000
	3.814337847107265e+000
	4.362034918157868e+000
	-5.256144776620298e-003

 134	3.875335138579915e-002
	5.000000000000000e+000
	7.850052267866101e-002
	4.985844256567039e+000
	3.814356903040625e+000
	4.360841296700207e+000
	-5.255055636960501e-003

 135	3.875501398150627e-002
	5.000000000000000e+000
	7.907829040291178e-002
	4.985627532236935e+000
	3.814361464757879e+000
	4.360438483854981e+000
	-5.254654281771215e-003

 136	3.875833917292052e-002
	5.000000000000000e+000
	8.056938603896439e-002
	4.985144062727263e+000
	3.814370401097363e+000
	4.359462379097290e+000
	-5.253554735553582e-003

 137	3.875917047077408e-002
	5.000000000000000e+000
	8.109254111797644e-002
	4.985002038494145e+000
	3.814372557232760e+000
	4.359126307848483e+000
	-5.253145537657014e-003

 138	3.876083306648120e-002
	5.000000000000000e+000
	8.242664404129765e-002
	4.984684758090473e+000
	3.814376794269641e+000
	4.358295206092228e+000
	-5.252062850354434e-003

 139	3.876124871540799e-002
	5.000000000000000e+000
	8.289641931915087e-002
	4.984590430575072e+000
	3.814377822714905e+000
	4.358022702166236e+000
	-5.251666318480647e-003

 140	3.876208001326155e-002
	5.000000000000000e+000
	8.408381994054177e-002
	4.984376922233132e+000
	3.814379849316735e+000
	4.357321777881796e+000
	-5.250641868366914e-003

 141	3.876228783772494e-002
	5.000000000000000e+000
	8.449676365947541e-002
	4.984312176628095e+000
	3.814380343352684e+000
	4.357082905158661e+000
	-5.250277096943059e-003

 142	3.876270348665172e-002
	5.000000000000000e+000
	8.550589441543012e-002
	4.984165300682059e+000
	3.814381319416755e+000
	4.356505049072684e+000
	-5.249375497242434e-003

 143	3.876280739888342e-002
	5.000000000000000e+000
	8.583878164030656e-002
	4.984121015730212e+000
	3.814381558554123e+000
	4.356321176793809e+000
	-5.249074330589284e-003

 144	3.876301522334680e-002
	5.000000000000000e+000
	8.660945876112916e-002
	4.984022603115326e+000
	3.814382032399316e+000
	4.355881810055981e+000
	-5.248373395130464e-003

 145	3.876343087227359e-002
	5.000000000000000e+000
	8.958450790528635e-002
	4.983692596196679e+000
	3.814382939551540e+000
	4.354238819654842e+000
	-5.245622628326993e-003

 146	3.876353478450528e-002
	5.000000000000000e+000
	9.120371767567122e-002
	4.983526660300099e+000
	3.814383150180836e+000
	4.353336055865456e+000
	-5.244113496231536e-003

 147	3.876356076256321e-002
	5.000000000000000e+000
	9.166953603977392e-002
	4.983478750728567e+000
	3.814383202248852e+000
	4.353071335258076e+000
	-5.243679597337429e-003

 148	3.876361271867906e-002
	5.000000000000000e+000
	9.274371314287407e-002
	4.983368219017179e+000
	3.814383305102586e+000
	4.352484792797376e+000
	-5.242679228607451e-003

 149	3.876371663091075e-002
	5.000000000000000e+000
	9.648115280575517e-002
	4.982978740901438e+000
	3.814383499719831e+000
	4.350422368191735e+000
	-5.239205118830664e-003

 150	3.876374260896868e-002
	5.000000000000000e+000
	9.818513337888429e-002
	4.982794490521289e+000
	3.814383544388576e+000
	4.349469585959654e+000
	-5.237628531917212e-003

 151	3.876379456508453e-002
	5.000000000000000e+000
	1.041095019772633e-001
	4.982087102243000e+000
	3.814383627858970e+000
	4.346153482447615e+000
	-5.232217124900069e-003

 152	3.876380755411349e-002
	5.000000000000000e+000
	1.072995833425741e-001
	4.981653365662913e+000
	3.814383645829889e+000
	4.344351922665752e+000
	-5.229358356227057e-003

 153	3.876381080137073e-002
	5.000000000000000e+000
	1.082350143603053e-001
	4.981517295487560e+000
	3.814383650222157e+000
	4.343820057681240e+000
	-5.228529303825089e-003

 154	3.876381729588521e-002
	5.000000000000000e+000
	1.104148710704261e-001
	4.981183308473973e+000
	3.814383658774588e+000
	4.342543792460088e+000
	-5.226614893969542e-003

 155	3.876383028491418e-002
	5.000000000000000e+000
	1.182955208816615e-001
	4.979745922040602e+000
	3.814383673922352e+000
	4.337892961529102e+000
	-5.219932605586655e-003

 156	3.876383353217142e-002
	5.000000000000000e+000
	1.222617778571113e-001
	4.978859640372431e+000
	3.814383676999559e+000
	4.335450875996613e+000
	-5.216738445664624e-003

 157	3.876383434398573e-002
	5.000000000000000e+000
	1.234161849606408e-001
	4.978583774397524e+000
	3.814383677745330e+000
	4.334720624251562e+000
	-5.215827337712675e-003

 158	3.876383596761435e-002
	5.000000000000000e+000
	1.260605153291059e-001
	4.977904707694143e+000
	3.814383679185796e+000
	4.333052001829959e+000
	-5.213789228967998e-003

 159	3.876383921487159e-002
	5.000000000000000e+000
	1.345654257190877e-001
	4.975252890808014e+000
	3.814383681672648e+000
	4.327506771292359e+000
	-5.207719228872943e-003

 160	3.876384002668590e-002
	5.000000000000000e+000
	1.381680858423246e-001
	4.973927283168463e+000
	3.814383682165773e+000
	4.324994592077144e+000
	-5.205357806259152e-003

 161	3.876384165031452e-002
	5.000000000000000e+000
	1.489462836695845e-001
	4.969202437272617e+000
	3.814383683013621e+000
	4.317253867383317e+000
	-5.199080183731239e-003

 162	3.876384205622167e-002
	5.000000000000000e+000
	1.533462517278638e-001
	4.966881989116926e+000
	3.814383683166994e+000
	4.313839508990946e+000
	-5.196923625267141e-003

 163	3.876384286803598e-002
	5.000000000000000e+000
	1.656207241078198e-001